41
	Energy:      65.4524395
Zn        -1.50370        2.92298       -0.07919
Zn        -6.33956       -9.41173       -2.40333
Zn         5.55340       -8.44482        1.30019
N         -1.32833        1.05161       -0.15376
N         -4.98577       -8.20392       -1.90661
N          3.99542       -7.47374        0.89032
N         -0.66489       -6.02779       -0.43598
C         -2.38624        0.29955       -0.54113
C         -2.28005       -1.09169       -0.60417
C         -1.06643       -1.74329       -0.26513
C          0.00774       -0.90669        0.13321
C         -0.14645        0.48066        0.18090
H         -3.31801        0.78359       -0.80277
H         -3.16466       -1.61433       -0.92134
H          0.97627       -1.27953        0.41470
H          0.68128        1.10697        0.48678
C          0.29321       -3.90022        0.00316
C         -0.92451       -3.25767       -0.32549
C         -2.00428       -4.08699       -0.71283
C         -1.86535       -5.48666       -0.76622
C          0.41675       -5.30114       -0.05515
H          1.14156       -3.32652        0.30139
H         -2.94652       -3.65891       -0.97112
C          2.86636       -5.37663        0.68947
C          1.68303       -6.03214        0.28200
C          1.71237       -7.43986        0.19383
C          2.87947       -8.14105        0.50267
C          4.01099       -6.12028        0.98852
H          2.93817       -4.30582        0.78540
H          0.84099       -8.00453       -0.11188
H          4.91670       -5.61724        1.30049
H          2.89721       -9.22058        0.43358
C         -2.74342       -7.80214       -1.19319
C         -2.97650       -6.41095       -1.16935
C         -4.26402       -5.95629       -1.53213
C         -5.25300       -6.87341       -1.89738
C         -3.76243       -8.68106       -1.56502
H         -1.78007       -8.21768       -0.92691
H         -4.53404       -4.91324       -1.54341
H         -3.57899       -9.74715       -1.58181
H         -6.23870       -6.52411       -2.17502
