13
	Energy:     148.3402803
Zn        -1.93162        4.72375        0.18829
Zn         0.19100       -2.60779       -0.13095
Zn        -3.26582       -2.80940       -0.10246
O         -2.82294        3.10321        0.13215
O         -0.85838        3.30391        0.11944
N         -2.28770       -1.20372       -0.04785
N         -0.96608       -1.12662       -0.05874
C         -2.79805        0.04010        0.00790
C         -0.60286        0.16815       -0.01018
C         -1.74830        0.93373        0.03294
C         -1.83021        2.39610        0.09300
H         -3.85444        0.27293        0.02853
H          0.41950        0.52222       -0.00669
