16
	Energy:      49.2813948
C         -0.54887       -1.38205        0.07314
C         -0.33106       -0.01257        0.12191
C         -1.19843        1.05625        0.11555
C          0.93300        0.48851        0.19047
C          2.03118       -0.35930        0.21307
C          0.83113        1.86079        0.22563
N         -0.47816        2.20026        0.17934
N          0.54640       -2.19751        0.09655
N          1.79330       -1.70323        0.16418
Zn        -1.17222        3.94829        0.19997
Zn         0.29899       -4.06096        0.03228
Zn         3.25195       -2.89038        0.19244
H          3.04178        0.02304        0.26736
H         -1.54693       -1.79598        0.01848
H          1.64723        2.56891        0.28097
H         -2.27842        1.01274        0.06805
