22
	Energy:      30.3352627
Zn        -3.46947       -4.47254       -0.75385
Zn         4.00030       -0.12781       -1.61870
Zn         4.75734       -2.26364       -2.44568
N          2.29076       -0.86475       -1.34693
N          3.03348       -2.96019       -2.15826
N         -1.75300       -3.75585       -1.03345
C          0.02629       -0.55457       -0.61776
C         -0.25485       -1.89181       -0.92204
C          1.31648       -0.05862       -0.84015
C          0.76377       -2.70506       -1.44340
C          0.50996       -4.04956       -1.75750
C          2.80818       -4.26717       -2.46966
C         -0.77682       -4.55936       -1.54003
C         -1.52467       -2.44944       -0.72309
C          2.04718       -2.16922       -1.65244
H         -0.73870        0.09774       -0.21429
C          1.54437       -4.83754       -2.27608
H          3.61411       -4.86763       -2.86983
H          1.37943       -5.87811       -2.52808
H          1.54383        0.97325       -0.60829
H         -2.33333       -1.85099       -0.32272
H         -1.00743       -5.59173       -1.77110
