22
	Energy:     853.8610122
Zn        -0.04122        2.55483        1.15983
Zn        -1.12679       -7.38844       -0.98315
O         -0.93228        1.24133        0.20966
O         -1.70632       -5.73565       -1.30501
O         -0.23519       -6.07534       -0.03292
O          0.53888        0.90227        1.48187
C         -0.30708        0.29422        0.65534
C         -0.46204       -1.16212        0.34493
C         -1.49729       -1.73831       -0.64658
C         -0.80329       -2.22588        1.41114
C          0.67180       -2.03050       -0.24256
C         -0.36339       -2.60795       -1.23417
C         -0.70467       -3.67171       -0.16797
C         -1.83849       -2.80331        0.41955
C          0.33060       -3.09555        0.82354
C         -0.86008       -5.12797       -0.47849
H         -0.93089       -1.76596        2.41387
H          1.59135       -1.43187       -0.41383
H          0.94946       -3.89592        1.28095
H         -2.75802       -3.40193        0.59092
H         -2.11613       -0.93799       -1.10409
H         -0.23562       -3.06790       -2.23686
