18
	Energy:      45.8018149
C         -1.69599        1.34767        0.20195
C         -0.24209        1.56988        0.06242
C         -1.38114       -1.94121       -3.28508
C          0.07276       -1.71900       -3.42460
O         -2.33790        2.08364        1.12757
O          0.28565        2.40114        0.78931
O          0.71468       -2.45496       -4.35022
O         -1.90886       -2.77247       -4.01198
Zn        -1.02783        3.06251        1.80844
Zn        -0.59538       -3.43383       -5.03110
O          0.46486        0.85978       -0.85294
C         -2.30094        0.44596       -0.57830
C         -1.48486       -0.30694       -1.56575
O         -2.08809       -1.23112       -2.36971
C         -0.13837       -0.06439       -1.65690
C          0.67770       -0.81729       -2.64435
H         -3.36816        0.26610       -0.49323
H          1.74492       -0.63743       -2.72941
