10
	Energy:     475.1561256
Zn        -0.39185       -3.31438        0.32931
Zn        -5.91552       -3.68217        2.63028
O         -1.72238       -2.06023        0.64850
O         -1.29203       -4.77361        0.94882
O         -4.68420       -4.99948        2.36189
O         -4.90304       -2.27201        1.97346
C         -2.59558       -2.76337        1.12496
C         -2.42914       -4.18160        1.30562
C         -3.87720       -2.84871        1.65884
C         -3.70524       -4.26657        1.83721
